# vtk DataFile Version 3.0
vtk output
ASCII
DATASET STRUCTURED_POINTS
DIMENSIONS 100 100 1
ORIGIN 0 0 0
SPACING 1 1 1
POINT_DATA 10000
SCALARS u float 1
LOOKUP_TABLE default
100.000000
100.000000
100.000000
100.000000
100.000000
100.000000
100.000000
100.000000
100.000000
100.000000
100.000000
100.000000
100.000000
100.000000
100.000000
100.000000
100.000000
100.000000
100.000000
100.000000
100.000000
100.000000
100.000000
100.000000
100.000000
100.000000
100.000000
100.000000
100.000000
100.000000
100.000000
100.000000
100.000000
100.000000
100.000000
100.000000
100.000000
100.000000
100.000000
100.000000
100.000000
100.000000
100.000000
100.000000
100.000000
100.000000
100.000000
100.000000
100.000000
100.000000
100.000000
100.000000
100.000000
100.000000
100.000000
100.000000
100.000000
100.000000
100.000000
100.000000
100.000000
100.000000
100.000000
100.000000
100.000000
100.000000
100.000000
100.000000
100.000000
100.000000
100.000000
100.000000
100.000000
100.000000
100.000000
100.000000
100.000000
100.000000
100.000000
100.000000
100.000000
100.000000
100.000000
100.000000
100.000000
100.000000
100.000000
100.000000
100.000000
100.000000
100.000000
100.000000
100.000000
100.000000
100.000000
100.000000
100.000000
100.000000
100.000000
100.000000
100.000000
98.745531
97.515660
96.333091
95.218747
94.188505
93.255456
92.426078
91.704213
91.087346
90.571421
90.147626
89.807076
89.538220
89.330683
89.173241
89.056516
88.971446
88.910888
88.868497
88.839530
88.820060
88.807293
88.799056
88.793875
88.790667
88.788733
88.787584
88.786920
88.786542
88.786333
88.786218
88.786158
88.786126
88.786110
88.786102
88.786098
88.786096
88.786095
88.786095
88.786095
88.786095
88.786095
88.786095
88.786095
88.786095
88.786095
88.786095
88.786095
88.786095
88.786095
88.786095
88.786095
88.786095
88.786095
88.786095
88.786095
88.786095
88.786095
88.786095
88.786095
88.786095
88.786096
88.786098
88.786102
88.786110
88.786126
88.786158
88.786218
88.786333
88.786542
88.786920
88.787584
88.788733
88.790667
88.793875
88.799056
88.807293
88.820060
88.839530
88.868497
88.910888
88.971446
89.056516
89.173241
89.330683
89.538220
89.807076
90.147626
90.571421
91.087346
91.704213
92.426078
93.255456
94.188505
95.218747
96.333091
97.515660
98.745531
100.000000
100.000000
97.515660
95.079568
92.738082
90.530420
88.490961
86.642141
85.000665
83.570059
82.349450
81.326813
80.488435
79.813310
79.281574
78.870077
78.558771
78.327301
78.159138
78.039031
77.955258
77.897799
77.859334
77.834006
77.817738
77.807458
77.801126
77.797287
77.795019
77.793701
77.792956
77.792540
77.792315
77.792195
77.792132
77.792100
77.792085
77.792077
77.792073
77.792071
77.792071
77.792070
77.792070
77.792070
77.792070
77.792070
77.792070
77.792070
77.792070
77.792070
77.792070
77.792070
77.792070
77.792070
77.792070
77.792070
77.792070
77.792070
77.792070
77.792070
77.792070
77.792071
77.792071
77.792073
77.792077
77.792085
77.792100
77.792132
77.792195
77.792315
77.792540
77.792956
77.793701
77.795019
77.797287
77.801126
77.807458
77.817738
77.834006
77.859334
77.897799
77.955258
78.039031
78.159138
78.327301
78.558771
78.870077
79.281574
79.813310
80.488435
81.326813
82.349450
83.570059
85.000665
86.642141
88.490961
90.530420
92.738082
95.079568
97.515660
100.000000
100.000000
96.333091
92.738082
89.281412
86.024164
83.012867
80.285654
77.861611
75.751795
73.949006
72.441219
71.202805
70.207651
69.422099
68.815708
68.355754
68.014754
67.766269
67.589382
67.465584
67.380989
67.324143
67.286866
67.262823
67.247698
67.238338
67.232693
67.229341
67.227404
67.226302
67.225691
67.225358
67.225181
67.225089
67.225042
67.225019
67.225008
67.225002
67.225000
67.224999
67.224998
67.224998
67.224998
67.224998
67.224998
67.224998
67.224998
67.224998
67.224998
67.224998
67.224998
67.224998
67.224998
67.224998
67.224998
67.224998
67.224998
67.224998
67.224998
67.224998
67.224999
67.225000
67.225002
67.225008
67.225019
67.225042
67.225089
67.225181
67.225358
67.225691
67.226302
67.227404
67.229341
67.232693
67.238338
67.247698
67.262823
67.286866
67.324143
67.380989
67.465584
67.589382
67.766269
68.014754
68.355754
68.815708
69.422099
70.207651
71.202805
72.441219
73.949006
75.751795
77.861611
80.285654
83.012867
86.024164
89.281412
92.738082
96.333091
100.000000
100.000000
95.218747
90.530420
86.024164
81.775642
77.850816
74.293124
71.134424
68.381785
66.033203
64.065800
62.452885
61.154255
60.131441
59.340065
58.741373
58.296318
57.972988
57.742114
57.581084
57.470667
57.396751
57.348095
57.316844
57.297103
57.284943
57.277574
57.273222
57.270693
57.269262
57.268465
57.268033
57.267803
57.267683
57.267622
57.267592
57.267577
57.267570
57.267567
57.267565
57.267565
57.267564
57.267564
57.267564
57.267564
57.267564
57.267564
57.267564
57.267564
57.267564
57.267564
57.267564
57.267564
57.267564
57.267564
57.267564
57.267564
57.267564
57.267564
57.267565
57.267565
57.267567
57.267570
57.267577
57.267592
57.267622
57.267683
57.267803
57.268033
57.268465
57.269262
57.270693
57.273222
57.277574
57.284943
57.297103
57.316844
57.348095
57.396751
57.470667
57.581084
57.742114
57.972988
58.296318
58.741373
59.340065
60.131441
61.154255
62.452885
64.065800
66.033203
68.381785
71.134424
74.293124
77.850816
81.775642
86.024164
90.530420
95.218747
100.000000
100.000000
94.188505
88.490961
83.012867
77.850816
73.078901
68.757167
64.916287
61.573300
58.717225
56.328508
54.366919
52.790642
51.546650
50.586376
49.858194
49.318336
48.925068
48.645114
48.449254
48.315416
48.225515
48.166563
48.128556
48.104649
48.089860
48.080940
48.075648
48.072589
48.070849
48.069885
48.069360
48.069082
48.068936
48.068863
48.068826
48.068808
48.068799
48.068795
48.068794
48.068793
48.068793
48.068792
48.068792
48.068792
48.068792
48.068792
48.068792
48.068792
48.068792
48.068792
48.068792
48.068792
48.068792
48.068792
48.068792
48.068792
48.068792
48.068793
48.068793
48.068794
48.068795
48.068799
48.068808
48.068826
48.068863
48.068936
48.069082
48.069360
48.069885
48.070849
48.072589
48.075648
48.080940
48.089860
48.104649
48.128556
48.166563
48.225515
48.315416
48.449254
48.645114
48.925068
49.318336
49.858194
50.586376
51.546650
52.790642
54.366919
56.328508
58.717225
61.573300
64.916287
68.757167
73.078901
77.850816
83.012867
88.490961
94.188505
100.000000
100.000000
93.255456
86.642141
80.285654
74.293124
68.757167
63.739609
59.284767
55.403216
52.091434
49.317723
47.043780
45.213385
43.771746
42.656648
41.813052
41.186159
40.730725
40.405650
40.178917
40.023518
39.919490
39.851047
39.807088
39.779334
39.762238
39.751884
39.745770
39.742220
39.740210
39.739092
39.738486
39.738163
39.737996
39.737910
39.737868
39.737847
39.737837
39.737833
39.737831
39.737830
39.737829
39.737829
39.737829
39.737829
39.737829
39.737829
39.737829
39.737829
39.737829
39.737829
39.737829
39.737829
39.737829
39.737829
39.737829
39.737829
39.737829
39.737829
39.737830
39.737831
39.737833
39.737837
39.737847
39.737868
39.737910
39.737996
39.738163
39.738486
39.739092
39.740210
39.742220
39.745770
39.751884
39.762238
39.779334
39.807088
39.851047
39.919490
40.023518
40.178917
40.405650
40.730725
41.186159
41.813052
42.656648
43.771746
45.213385
47.043780
49.317723
52.091434
55.403216
59.284767
63.739609
68.757167
74.293124
80.285654
86.642141
93.255456
100.000000
100.000000
92.426078
85.000665
77.861611
71.134424
64.916287
59.284767
54.280591
49.925105
46.204758
43.093195
40.538663
38.485913
36.866392
35.616234
34.668577
33.966003
33.454417
33.090238
32.835573
32.661552
32.544722
32.468112
32.418750
32.387700
32.368506
32.356928
32.350065
32.346097
32.343843
32.342594
32.341914
32.341554
32.341366
32.341270
32.341223
32.341200
32.341189
32.341184
32.341181
32.341180
32.341180
32.341180
32.341179
32.341179
32.341179
32.341179
32.341179
32.341179
32.341179
32.341179
32.341179
32.341179
32.341179
32.341179
32.341179
32.341179
32.341180
32.341180
32.341180
32.341181
32.341184
32.341189
32.341200
32.341223
32.341270
32.341366
32.341554
32.341914
32.342594
32.343843
32.346097
32.350065
32.356928
32.368506
32.387700
32.418750
32.468112
32.544722
32.661552
32.835573
33.090238
33.454417
33.966003
34.668577
35.616234
36.866392
38.485913
40.538663
43.093195
46.204758
49.925105
54.280591
59.284767
64.916287
71.134424
77.861611
85.000665
92.426078
100.000000
100.000000
91.704213
83.570059
75.751795
68.381785
61.573300
55.403216
49.925105
45.152882
41.081169
37.671838
34.876801
32.627640
30.856176
29.486458
28.450237
27.680526
27.121335
26.722395
26.444144
26.253538
26.125942
26.042045
25.988160
25.954163
25.933220
25.920547
25.913063
25.908721
25.906263
25.904897
25.904157
25.903763
25.903558
25.903454
25.903402
25.903377
25.903365
25.903359
25.903357
25.903356
25.903355
25.903355
25.903355
25.903355
25.903355
25.903355
25.903355
25.903355
25.903355
25.903355
25.903355
25.903355
25.903355
25.903355
25.903355
25.903355
25.903355
25.903355
25.903356
25.903357
25.903359
25.903365
25.903377
25.903402
25.903454
25.903558
25.903763
25.904157
25.904897
25.906263
25.908721
25.913063
25.920547
25.933220
25.954163
25.988160
26.042045
26.125942
26.253538
26.444144
26.722395
27.121335
27.680526
28.450237
29.486458
30.856176
32.627640
34.876801
37.671838
41.081169
45.152882
49.925105
55.403216
61.573300
68.381785
75.751795
83.570059
91.704213
100.000000
100.000000
91.087346
82.349450
73.949006
66.033203
58.717225
52.091434
46.204758
41.081169
36.705732
33.046277
30.042802
27.629296
25.725818
24.256466
23.143109
22.317689
21.716937
21.289282
20.990392
20.786150
20.649114
20.559254
20.501394
20.464998
20.442516
20.428956
20.420924
20.416280
20.413644
20.412184
20.411389
20.410968
20.410749
20.410638
20.410582
20.410555
20.410543
20.410537
20.410534
20.410533
20.410532
20.410532
20.410532
20.410532
20.410532
20.410532
20.410532
20.410532
20.410532
20.410532
20.410532
20.410532
20.410532
20.410532
20.410532
20.410532
20.410532
20.410532
20.410533
20.410534
20.410537
20.410543
20.410555
20.410582
20.410638
20.410749
20.410968
20.411389
20.412184
20.413644
20.416280
20.420924
20.428956
20.442516
20.464998
20.501394
20.559254
20.649114
20.786150
20.990392
21.289282
21.716937
22.317689
23.143109
24.256466
25.725818
27.629296
30.042802
33.046277
36.705732
41.081169
46.204758
52.091434
58.717225
66.033203
73.949006
82.349450
91.087346
100.000000
100.000000
90.571421
81.326813
72.441219
64.065800
56.328508
49.317723
43.093195
37.671838
33.046277
29.174214
25.999821
23.446218
21.434972
19.880450
18.704420
17.831249
17.196894
16.744563
16.429072
16.213082
16.068493
15.973484
15.912462
15.873990
15.850291
15.835961
15.827498
15.822592
15.819816
15.818274
15.817439
15.816994
15.816763
15.816646
15.816588
15.816559
15.816546
15.816540
15.816537
15.816535
15.816535
15.816535
15.816535
15.816535
15.816535
15.816535
15.816535
15.816535
15.816535
15.816535
15.816535
15.816535
15.816535
15.816535
15.816535
15.816535
15.816535
15.816535
15.816535
15.816537
15.816540
15.816546
15.816559
15.816588
15.816646
15.816763
15.816994
15.817439
15.818274
15.819816
15.822592
15.827498
15.835961
15.850291
15.873990
15.912462
15.973484
16.068493
16.213082
16.429072
16.744563
17.196894
17.831249
18.704420
19.880450
21.434972
23.446218
25.999821
29.174214
33.046277
37.671838
43.093195
49.317723
56.328508
64.065800
72.441219
81.326813
90.571421
100.000000
100.000000
90.147626
80.488435
71.202805
62.452885
54.366919
47.043780
40.538663
34.876801
30.042802
25.999821
22.682529
20.016847
17.915216
16.292905
15.064150
14.153177
13.490470
13.018713
12.689174
12.463990
12.312994
12.213979
12.150267
12.110190
12.085453
12.070532
12.061701
12.056596
12.053700
12.052096
12.051225
12.050763
12.050522
12.050400
12.050340
12.050310
12.050296
12.050290
12.050287
12.050285
12.050285
12.050285
12.050285
12.050284
12.050284
12.050284
12.050284
12.050284
12.050284
12.050284
12.050284
12.050284
12.050284
12.050284
12.050284
12.050285
12.050285
12.050285
12.050285
12.050287
12.050290
12.050296
12.050310
12.050340
12.050400
12.050522
12.050763
12.051225
12.052096
12.053700
12.056596
12.061701
12.070532
12.085453
12.110190
12.150267
12.213979
12.312994
12.463990
12.689174
13.018713
13.490470
14.153177
15.064150
16.292905
17.915216
20.016847
22.682529
25.999821
30.042802
34.876801
40.538663
47.043780
54.366919
62.452885
71.202805
80.488435
90.147626
100.000000
100.000000
89.807076
79.813310
70.207651
61.154255
52.790642
45.213385
38.485913
32.627640
27.629296
23.446218
20.016847
17.258973
15.086841
13.408577
12.138933
11.196655
10.512093
10.024197
9.683900
9.451053
9.295181
9.192819
9.127075
9.085653
9.060137
9.044720
9.035615
9.030341
9.027357
9.025701
9.024803
9.024326
9.024079
9.023953
9.023890
9.023860
9.023846
9.023839
9.023836
9.023835
9.023834
9.023834
9.023834
9.023834
9.023834
9.023834
9.023834
9.023834
9.023834
9.023834
9.023834
9.023834
9.023834
9.023834
9.023834
9.023834
9.023834
9.023834
9.023835
9.023836
9.023839
9.023846
9.023860
9.023890
9.023953
9.024079
9.024326
9.024803
9.025701
9.027357
9.030341
9.035615
9.044720
9.060137
9.085653
9.127075
9.192819
9.295181
9.451053
9.683900
10.024197
10.512093
11.196655
12.138933
13.408577
15.086841
17.258973
20.016847
23.446218
27.629296
32.627640
38.485913
45.213385
52.790642
61.154255
70.207651
79.813310
89.807076
100.000000
100.000000
89.538220
79.281574
69.422099
60.131441
51.546650
43.771746
36.866392
30.856176
25.725818
21.434972
17.915216
15.086841
12.857638
11.136850
9.833984
8.868067
8.165685
7.665685
7.316584
7.078033
6.918158
6.813322
6.745904
6.703495
6.677336
6.661558
6.652226
6.646831
6.643773
6.642080
6.641160
6.640673
6.640419
6.640291
6.640227
6.640196
6.640181
6.640174
6.640171
6.640170
6.640169
6.640169
6.640169
6.640169
6.640169
6.640169
6.640169
6.640169
6.640169
6.640169
6.640169
6.640169
6.640169
6.640169
6.640169
6.640169
6.640169
6.640169
6.640170
6.640171
6.640174
6.640181
6.640196
6.640227
6.640291
6.640419
6.640673
6.641160
6.642080
6.643773
6.646831
6.652226
6.661558
6.677336
6.703495
6.745904
6.813322
6.918158
7.078033
7.316584
7.665685
8.165685
8.868067
9.833984
11.136850
12.857638
15.086841
17.915216
21.434972
25.725818
30.856176
36.866392
43.771746
51.546650
60.131441
69.422099
79.281574
89.538220
100.000000
100.000000
89.330683
78.870077
68.815708
59.340065
50.586376
42.656648
35.616234
29.486458
24.256466
19.880450
16.292905
13.408577
11.136850
9.382175
8.054725
7.069896
6.354423
5.844702
5.489183
5.246033
5.083263
4.976425
4.907806
4.864598
4.837981
4.821908
4.812417
4.806923
4.803814
4.802090
4.801155
4.800659
4.800401
4.800271
4.800206
4.800174
4.800159
4.800152
4.800149
4.800148
4.800147
4.800147
4.800147
4.800147
4.800147
4.800147
4.800147
4.800147
4.800147
4.800147
4.800147
4.800147
4.800147
4.800147
4.800147
4.800147
4.800147
4.800147
4.800148
4.800149
4.800152
4.800159
4.800174
4.800206
4.800271
4.800401
4.800659
4.801155
4.802090
4.803814
4.806923
4.812417
4.821908
4.837981
4.864598
4.907806
4.976425
5.083263
5.246033
5.489183
5.844702
6.354423
7.069896
8.054725
9.382175
11.136850
13.408577
16.292905
19.880450
24.256466
29.486458
35.616234
42.656648
50.586376
59.340065
68.815708
78.870077
89.330683
100.000000
100.000000
89.173241
78.558771
68.355754
58.741373
49.858194
41.813052
34.668577
28.450237
23.143109
18.704420
15.064150
12.138933
9.833984
8.054725
6.707986
5.709542
4.983753
4.467090
4.106493
3.860085
3.695016
3.586773
3.517197
3.473432
3.446449
3.430174
3.420554
3.414992
3.411842
3.410097
3.409150
3.408648
3.408388
3.408255
3.408190
3.408158
3.408143
3.408136
3.408132
3.408131
3.408130
3.408130
3.408130
3.408130
3.408130
3.408130
3.408130
3.408130
3.408130
3.408130
3.408130
3.408130
3.408130
3.408130
3.408130
3.408130
3.408130
3.408130
3.408131
3.408132
3.408136
3.408143
3.408158
3.408190
3.408255
3.408388
3.408648
3.409150
3.410097
3.411842
3.414992
3.420554
3.430174
3.446449
3.473432
3.517197
3.586773
3.695016
3.860085
4.106493
4.467090
4.983753
5.709542
6.707986
8.054725
9.833984
12.138933
15.064150
18.704420
23.143109
28.450237
34.668577
41.813052
49.858194
58.741373
68.355754
78.558771
89.173241
100.000000
100.000000
89.056516
78.327301
68.014754
58.296318
49.318336
41.186159
33.966003
27.680526
22.317689
17.831249
14.153177
11.196655
8.868067
7.069896
5.709542
4.700576
3.967567
3.445515
3.081395
2.832448
2.665798
2.556456
2.486228
2.442025
2.414796
2.398361
2.388655
2.383040
2.379863
2.378102
2.377147
2.376640
2.376378
2.376244
2.376178
2.376146
2.376130
2.376123
2.376120
2.376119
2.376118
2.376118
2.376118
2.376118
2.376118
2.376118
2.376118
2.376118
2.376118
2.376118
2.376118
2.376118
2.376118
2.376118
2.376118
2.376118
2.376118
2.376118
2.376119
2.376120
2.376123
2.376130
2.376146
2.376178
2.376244
2.376378
2.376640
2.377147
2.378102
2.379863
2.383040
2.388655
2.398361
2.414796
2.442025
2.486228
2.556456
2.665798
2.832448
3.081395
3.445515
3.967567
4.700576
5.709542
7.069896
8.868067
11.196655
14.153177
17.831249
22.317689
27.680526
33.966003
41.186159
49.318336
58.296318
68.014754
78.327301
89.056516
100.000000
100.000000
88.971446
78.159138
67.766269
57.972988
48.925068
40.730725
33.454417
27.121335
21.716937
17.196894
13.490470
10.512093
8.165685
6.354423
4.983753
3.967567
3.229061
2.703345
2.336531
2.085874
1.918010
1.807935
1.737204
1.692713
1.665293
1.648753
1.638981
1.633332
1.630133
1.628361
1.627400
1.626891
1.626626
1.626492
1.626426
1.626393
1.626378
1.626371
1.626368
1.626366
1.626365
1.626365
1.626365
1.626365
1.626365
1.626365
1.626365
1.626365
1.626365
1.626365
1.626365
1.626365
1.626365
1.626365
1.626365
1.626365
1.626365
1.626365
1.626366
1.626368
1.626371
1.626378
1.626393
1.626426
1.626492
1.626626
1.626891
1.627400
1.628361
1.630133
1.633332
1.638981
1.648753
1.665293
1.692713
1.737204
1.807935
1.918010
2.085874
2.336531
2.703345
3.229061
3.967567
4.983753
6.354423
8.165685
10.512093
13.490470
17.196894
21.716937
27.121335
33.454417
40.730725
48.925068
57.972988
67.766269
78.159138
88.971446
100.000000
100.000000
88.910888
78.039031
67.589382
57.742114
48.645114
40.405650
33.090238
26.722395
21.289282
16.744563
13.018713
10.024197
7.665685
5.844702
4.467090
3.445515
2.703345
2.174881
1.806289
1.554344
1.385686
1.275056
1.204001
1.159290
1.131748
1.115129
1.105315
1.099639
1.096427
1.094647
1.093683
1.093171
1.092905
1.092771
1.092704
1.092671
1.092656
1.092649
1.092645
1.092644
1.092643
1.092643
1.092643
1.092643
1.092643
1.092643
1.092643
1.092643
1.092643
1.092643
1.092643
1.092643
1.092643
1.092643
1.092643
1.092643
1.092643
1.092643
1.092644
1.092645
1.092649
1.092656
1.092671
1.092704
1.092771
1.092905
1.093171
1.093683
1.094647
1.096427
1.099639
1.105315
1.115129
1.131748
1.159290
1.204001
1.275056
1.385686
1.554344
1.806289
2.174881
2.703345
3.445515
4.467090
5.844702
7.665685
10.024197
13.018713
16.744563
21.289282
26.722395
33.090238
40.405650
48.645114
57.742114
67.589382
78.039031
88.910888
100.000000
100.000000
88.868497
77.955258
67.465584
57.581084
48.449254
40.178917
32.835573
26.444144
20.990392
16.429072
12.689174
9.683900
7.316584
5.489183
4.106493
3.081395
2.336531
1.806289
1.436382
1.183612
1.014366
0.903385
0.832087
0.787239
0.759605
0.742937
0.733091
0.727399
0.724177
0.722393
0.721425
0.720912
0.720646
0.720511
0.720444
0.720411
0.720396
0.720389
0.720385
0.720384
0.720383
0.720383
0.720383
0.720383
0.720383
0.720383
0.720383
0.720383
0.720383
0.720383
0.720383
0.720383
0.720383
0.720383
0.720383
0.720383
0.720383
0.720383
0.720384
0.720385
0.720389
0.720396
0.720411
0.720444
0.720511
0.720646
0.720912
0.721425
0.722393
0.724177
0.727399
0.733091
0.742937
0.759605
0.787239
0.832087
0.903385
1.014366
1.183612
1.436382
1.806289
2.336531
3.081395
4.106493
5.489183
7.316584
9.683900
12.689174
16.429072
20.990392
26.444144
32.835573
40.178917
48.449254
57.581084
67.465584
77.955258
88.868497
100.000000
100.000000
88.839530
77.897799
67.380989
57.470667
48.315416
40.023518
32.661552
26.253538
20.786150
16.213082
12.463990
9.451053
7.078033
5.246033
3.860085
2.832448
2.085874
1.554344
1.183612
0.930242
0.760630
0.649392
0.577946
0.532996
0.505308
0.488603
0.478739
0.473035
0.469807
0.468019
0.467049
0.466535
0.466269
0.466133
0.466066
0.466034
0.466018
0.466011
0.466008
0.466006
0.466006
0.466005
0.466005
0.466005
0.466005
0.466005
0.466005
0.466005
0.466005
0.466005
0.466005
0.466005
0.466005
0.466005
0.466005
0.466005
0.466005
0.466006
0.466006
0.466008
0.466011
0.466018
0.466034
0.466066
0.466133
0.466269
0.466535
0.467049
0.468019
0.469807
0.473035
0.478739
0.488603
0.505308
0.532996
0.577946
0.649392
0.760630
0.930242
1.183612
1.554344
2.085874
2.832448
3.860085
5.246033
7.078033
9.451053
12.463990
16.213082
20.786150
26.253538
32.661552
40.023518
48.315416
57.470667
67.380989
77.897799
88.839530
100.000000
100.000000
88.820060
77.859334
67.324143
57.396751
48.225515
39.919490
32.544722
26.125942
20.649114
16.068493
12.312994
9.295181
6.918158
5.083263
3.695016
2.665798
1.918010
1.385686
1.014366
0.760630
0.590756
0.479363
0.407810
0.362801
0.335072
0.318347
0.308468
0.302757
0.299525
0.297735
0.296765
0.296250
0.295983
0.295848
0.295780
0.295748
0.295732
0.295725
0.295722
0.295720
0.295720
0.295720
0.295719
0.295719
0.295719
0.295719
0.295719
0.295719
0.295719
0.295719
0.295719
0.295719
0.295719
0.295719
0.295719
0.295719
0.295720
0.295720
0.295720
0.295722
0.295725
0.295732
0.295748
0.295780
0.295848
0.295983
0.296250
0.296765
0.297735
0.299525
0.302757
0.308468
0.318347
0.335072
0.362801
0.407810
0.479363
0.590756
0.760630
1.014366
1.385686
1.918010
2.665798
3.695016
5.083263
6.918158
9.295181
12.312994
16.068493
20.649114
26.125942
32.544722
39.919490
48.225515
57.396751
67.324143
77.859334
88.820060
100.000000
100.000000
88.807293
77.834006
67.286866
57.348095
48.166563
39.851047
32.468112
26.042045
20.559254
15.973484
12.213979
9.192819
6.813322
4.976425
3.586773
2.556456
1.807935
1.275056
0.903385
0.649392
0.479363
0.367861
0.296246
0.251194
0.223442
0.206702
0.196816
0.191100
0.187865
0.186074
0.185103
0.184588
0.184320
0.184185
0.184118
0.184085
0.184069
0.184062
0.184059
0.184058
0.184057
0.184057
0.184057
0.184056
0.184056
0.184056
0.184056
0.184056
0.184056
0.184056
0.184056
0.184056
0.184056
0.184056
0.184056
0.184057
0.184057
0.184057
0.184058
0.184059
0.184062
0.184069
0.184085
0.184118
0.184185
0.184320
0.184588
0.185103
0.186074
0.187865
0.191100
0.196816
0.206702
0.223442
0.251194
0.296246
0.367861
0.479363
0.649392
0.903385
1.275056
1.807935
2.556456
3.586773
4.976425
6.813322
9.192819
12.213979
15.973484
20.559254
26.042045
32.468112
39.851047
48.166563
57.348095
67.286866
77.834006
88.807293
100.000000
100.000000
88.799056
77.817738
67.262823
57.316844
48.128556
39.807088
32.418750
25.988160
20.501394
15.912462
12.150267
9.127075
6.745904
4.907806
3.517197
2.486228
1.737204
1.204001
0.832087
0.577946
0.407810
0.296246
0.224587
0.179512
0.151744
0.134995
0.125103
0.119385
0.116149
0.114356
0.113385
0.112869
0.112602
0.112466
0.112399
0.112366
0.112351
0.112344
0.112341
0.112339
0.112338
0.112338
0.112338
0.112338
0.112338
0.112338
0.112338
0.112338
0.112338
0.112338
0.112338
0.112338
0.112338
0.112338
0.112338
0.112338
0.112338
0.112338
0.112339
0.112341
0.112344
0.112351
0.112366
0.112399
0.112466
0.112602
0.112869
0.113385
0.114356
0.116149
0.119385
0.125103
0.134995
0.151744
0.179512
0.224587
0.296246
0.407810
0.577946
0.832087
1.204001
1.737204
2.486228
3.517197
4.907806
6.745904
9.127075
12.150267
15.912462
20.501394
25.988160
32.418750
39.807088
48.128556
57.316844
67.262823
77.817738
88.799056
100.000000
100.000000
88.793875
77.807458
67.247698
57.297103
48.104649
39.779334
32.387700
25.954163
20.464998
15.873990
12.110190
9.085653
6.703495
4.864598
3.473432
2.442025
1.692713
1.159290
0.787239
0.532996
0.362801
0.251194
0.179512
0.134420
0.106643
0.089889
0.079994
0.074274
0.071036
0.069243
0.068272
0.067756
0.067489
0.067353
0.067286
0.067253
0.067238
0.067231
0.067227
0.067226
0.067225
0.067225
0.067225
0.067225
0.067225
0.067225
0.067225
0.067225
0.067225
0.067225
0.067225
0.067225
0.067225
0.067225
0.067225
0.067225
0.067225
0.067225
0.067226
0.067227
0.067231
0.067238
0.067253
0.067286
0.067353
0.067489
0.067756
0.068272
0.069243
0.071036
0.074274
0.079994
0.089889
0.106643
0.134420
0.179512
0.251194
0.362801
0.532996
0.787239
1.159290
1.692713
2.442025
3.473432
4.864598
6.703495
9.085653
12.110190
15.873990
20.464998
25.954163
32.387700
39.779334
48.104649
57.297103
67.247698
77.807458
88.793875
100.000000
100.000000
88.790667
77.801126
67.238338
57.284943
48.089860
39.762238
32.368506
25.933220
20.442516
15.850291
12.085453
9.060137
6.677336
4.837981
3.446449
2.414796
1.665293
1.131748
0.759605
0.505308
0.335072
0.223442
0.151744
0.106643
0.078861
0.062103
0.052206
0.046485
0.043247
0.041454
0.040482
0.039967
0.039699
0.039564
0.039496
0.039464
0.039448
0.039441
0.039438
0.039436
0.039436
0.039435
0.039435
0.039435
0.039435
0.039435
0.039435
0.039435
0.039435
0.039435
0.039435
0.039435
0.039435
0.039435
0.039435
0.039435
0.039435
0.039436
0.039436
0.039438
0.039441
0.039448
0.039464
0.039496
0.039564
0.039699
0.039967
0.040482
0.041454
0.043247
0.046485
0.052206
0.062103
0.078861
0.106643
0.151744
0.223442
0.335072
0.505308
0.759605
1.131748
1.665293
2.414796
3.446449
4.837981
6.677336
9.060137
12.085453
15.850291
20.442516
25.933220
32.368506
39.762238
48.089860
57.284943
67.238338
77.801126
88.790667
100.000000
100.000000
88.788733
77.797287
67.232693
57.277574
48.080940
39.751884
32.356928
25.920547
20.428956
15.835961
12.070532
9.044720
6.661558
4.821908
3.430174
2.398361
1.648753
1.115129
0.742937
0.488603
0.318347
0.206702
0.134995
0.089889
0.062103
0.045343
0.035446
0.029724
0.026486
0.024692
0.023720
0.023205
0.022937
0.022802
0.022734
0.022701
0.022686
0.022679
0.022676
0.022674
0.022673
0.022673
0.022673
0.022673
0.022673
0.022673
0.022673
0.022673
0.022673
0.022673
0.022673
0.022673
0.022673
0.022673
0.022673
0.022673
0.022673
0.022673
0.022674
0.022676
0.022679
0.022686
0.022701
0.022734
0.022802
0.022937
0.023205
0.023720
0.024692
0.026486
0.029724
0.035446
0.045343
0.062103
0.089889
0.134995
0.206702
0.318347
0.488603
0.742937
1.115129
1.648753
2.398361
3.430174
4.821908
6.661558
9.044720
12.070532
15.835961
20.428956
25.920547
32.356928
39.751884
48.080940
57.277574
67.232693
77.797287
88.788733
100.000000
100.000000
88.787584
77.795019
67.229341
57.273222
48.075648
39.745770
32.350065
25.913063
20.420924
15.827498
12.061701
9.035615
6.652226
4.812417
3.420554
2.388655
1.638981
1.105315
0.733091
0.478739
0.308468
0.196816
0.125103
0.079994
0.052206
0.035446
0.025548
0.019825
0.016587
0.014793
0.013821
0.013306
0.013038
0.012903
0.012835
0.012803
0.012787
0.012780
0.012777
0.012775
0.012775
0.012774
0.012774
0.012774
0.012774
0.012774
0.012774
0.012774
0.012774
0.012774
0.012774
0.012774
0.012774
0.012774
0.012774
0.012774
0.012774
0.012775
0.012775
0.012777
0.012780
0.012787
0.012803
0.012835
0.012903
0.013038
0.013306
0.013821
0.014793
0.016587
0.019825
0.025548
0.035446
0.052206
0.079994
0.125103
0.196816
0.308468
0.478739
0.733091
1.105315
1.638981
2.388655
3.420554
4.812417
6.652226
9.035615
12.061701
15.827498
20.420924
25.913063
32.350065
39.745770
48.075648
57.273222
67.229341
77.795019
88.787584
100.000000
100.000000
88.786920
77.793701
67.227404
57.270693
48.072589
39.742220
32.346097
25.908721
20.416280
15.822592
12.056596
9.030341
6.646831
4.806923
3.414992
2.383040
1.633332
1.099639
0.727399
0.473035
0.302757
0.191100
0.119385
0.074274
0.046485
0.029724
0.019825
0.014103
0.010864
0.009071
0.008099
0.007583
0.007316
0.007180
0.007113
0.007080
0.007064
0.007057
0.007054
0.007052
0.007052
0.007052
0.007051
0.007051
0.007051
0.007051
0.007051
0.007051
0.007051
0.007051
0.007051
0.007051
0.007051
0.007051
0.007051
0.007051
0.007052
0.007052
0.007052
0.007054
0.007057
0.007064
0.007080
0.007113
0.007180
0.007316
0.007583
0.008099
0.009071
0.010864
0.014103
0.019825
0.029724
0.046485
0.074274
0.119385
0.191100
0.302757
0.473035
0.727399
1.099639
1.633332
2.383040
3.414992
4.806923
6.646831
9.030341
12.056596
15.822592
20.416280
25.908721
32.346097
39.742220
48.072589
57.270693
67.227404
77.793701
88.786920
100.000000
100.000000
88.786542
77.792956
67.226302
57.269262
48.070849
39.740210
32.343843
25.906263
20.413644
15.819816
12.053700
9.027357
6.643773
4.803814
3.411842
2.379863
1.630133
1.096427
0.724177
0.469807
0.299525
0.187865
0.116149
0.071036
0.043247
0.026486
0.016587
0.010864
0.007626
0.005832
0.004860
0.004345
0.004077
0.003941
0.003874
0.003841
0.003826
0.003819
0.003815
0.003814
0.003813
0.003813
0.003813
0.003813
0.003813
0.003813
0.003813
0.003813
0.003813
0.003813
0.003813
0.003813
0.003813
0.003813
0.003813
0.003813
0.003813
0.003813
0.003814
0.003815
0.003819
0.003826
0.003841
0.003874
0.003941
0.004077
0.004345
0.004860
0.005832
0.007626
0.010864
0.016587
0.026486
0.043247
0.071036
0.116149
0.187865
0.299525
0.469807
0.724177
1.096427
1.630133
2.379863
3.411842
4.803814
6.643773
9.027357
12.053700
15.819816
20.413644
25.906263
32.343843
39.740210
48.070849
57.269262
67.226302
77.792956
88.786542
100.000000
100.000000
88.786333
77.792540
67.225691
57.268465
48.069885
39.739092
32.342594
25.904897
20.412184
15.818274
12.052096
9.025701
6.642080
4.802090
3.410097
2.378102
1.628361
1.094647
0.722393
0.468019
0.297735
0.186074
0.114356
0.069243
0.041454
0.024692
0.014793
0.009071
0.005832
0.004039
0.003067
0.002551
0.002284
0.002148
0.002080
0.002048
0.002032
0.002025
0.002022
0.002020
0.002020
0.002019
0.002019
0.002019
0.002019
0.002019
0.002019
0.002019
0.002019
0.002019
0.002019
0.002019
0.002019
0.002019
0.002019
0.002019
0.002019
0.002020
0.002020
0.002022
0.002025
0.002032
0.002048
0.002080
0.002148
0.002284
0.002551
0.003067
0.004039
0.005832
0.009071
0.014793
0.024692
0.041454
0.069243
0.114356
0.186074
0.297735
0.468019
0.722393
1.094647
1.628361
2.378102
3.410097
4.802090
6.642080
9.025701
12.052096
15.818274
20.412184
25.904897
32.342594
39.739092
48.069885
57.268465
67.225691
77.792540
88.786333
100.000000
100.000000
88.786218
77.792315
67.225358
57.268033
48.069360
39.738486